ITEM: TIMESTEP
0
ITEM: NUMBER OF ATOMS
8
ITEM: BOX BOUNDS pp pp pp
-100.000 100.000 
-100.000 100.000 
-100.000 100.000 
ITEM: ATOMS id mol type q xu yu zu
1 1 1 0.00 0.000000 0.000000 0.000000
2 1 1 0.00 1.000000 2.000000 0.000000
3 1 1 0.00 3.999999 8.000000 0.000000
4 1 1 0.00 4.719385 10.000000 0.000000
5 1 1 0.00 10.000000 0.000000 0.000000
6 1 1 0.00 9.000000 2.000000 0.000000
7 1 1 0.00 6.000001 8.000000 0.000000
8 1 1 0.00 5.280615 10.000000 0.000000
ITEM: TIMESTEP
2
ITEM: NUMBER OF ATOMS
8
ITEM: BOX BOUNDS pp pp pp
-100.000 100.000 
-100.000 100.000 
-100.000 100.000 
ITEM: ATOMS id mol type q xu yu zu
1 1 1 0.00 0.000000 0.000000 0.000000
2 1 1 0.00 1.000004 1.999999 0.000000
3 1 1 0.00 3.999994 8.000001 0.000000
4 1 1 0.00 4.719397 9.999999 0.000000
5 1 1 0.00 10.000000 0.000000 0.000000
6 1 1 0.00 8.999996 1.999998 0.000000
7 1 1 0.00 6.000006 8.000002 0.000000
8 1 1 0.00 5.280603 9.999999 0.000000
ITEM: TIMESTEP
4
ITEM: NUMBER OF ATOMS
8
ITEM: BOX BOUNDS pp pp pp
-100.000 100.000 
-100.000 100.000 
-100.000 100.000 
ITEM: ATOMS id mol type q xu yu zu
1 1 1 0.00 0.000000 0.000000 0.000000
2 1 1 0.00 1.000014 1.999997 0.000000
3 1 1 0.00 3.999982 8.000003 0.000000
4 1 1 0.00 4.719445 9.999998 0.000000
5 1 1 0.00 10.000000 0.000000 0.000000
6 1 1 0.00 8.999987 1.999996 0.000000
7 1 1 0.00 6.000017 8.000004 0.000000
8 1 1 0.00 5.280555 9.999998 0.000000
ITEM: TIMESTEP
6
ITEM: NUMBER OF ATOMS
8
ITEM: BOX BOUNDS pp pp pp
-100.000 100.000 
-100.000 100.000 
-100.000 100.000 
ITEM: ATOMS id mol type q xu yu zu
1 1 1 0.00 0.000000 0.000000 0.000000
2 1 1 0.00 1.000032 1.999996 0.000000
3 1 1 0.00 3.999959 8.000004 0.000000
4 1 1 0.00 4.719534 9.999997 0.000000
5 1 1 0.00 10.000000 0.000000 0.000000
6 1 1 0.00 8.999969 1.999994 0.000000
7 1 1 0.00 6.000040 8.000006 0.000000
8 1 1 0.00 5.280467 9.999996 0.000000
ITEM: TIMESTEP
8
ITEM: NUMBER OF ATOMS
8
ITEM: BOX BOUNDS pp pp pp
-100.000 100.000 
-100.000 100.000 
-100.000 100.000 
ITEM: ATOMS id mol type q xu yu zu
1 1 1 0.00 0.000000 0.000000 0.000000
2 1 1 0.00 1.000064 1.999995 0.000000
3 1 1 0.00 3.999919 8.000005 0.000000
4 1 1 0.00 4.719672 9.999997 0.000000
5 1 1 0.00 10.000000 0.000000 0.000000
6 1 1 0.00 8.999937 1.999992 0.000000
7 1 1 0.00 6.000079 8.000008 0.000000
8 1 1 0.00 5.280328 9.999995 0.000000
ITEM: TIMESTEP
10
ITEM: NUMBER OF ATOMS
8
ITEM: BOX BOUNDS pp pp pp
-100.000 100.000 
-100.000 100.000 
-100.000 100.000 
ITEM: ATOMS id mol type q xu yu zu
1 1 1 0.00 0.000000 0.000000 0.000000
2 1 1 0.00 1.000115 1.999993 0.000000
3 1 1 0.00 3.999854 8.000007 0.000000
4 1 1 0.00 4.719877 9.999996 0.000000
5 1 1 0.00 10.000000 0.000000 0.000000
6 1 1 0.00 8.999887 1.999990 0.000000
7 1 1 0.00 6.000145 8.000010 0.000000
8 1 1 0.00 5.280124 9.999994 0.000000
ITEM: TIMESTEP
12
ITEM: NUMBER OF ATOMS
8
ITEM: BOX BOUNDS pp pp pp
-100.000 100.000 
-100.000 100.000 
-100.000 100.000 
ITEM: ATOMS id mol type q xu yu zu
1 1 1 0.00 0.000000 0.000000 0.000000
2 1 1 0.00 1.000194 1.999992 0.000000
3 1 1 0.00 3.999750 8.000008 0.000000
4 1 1 0.00 4.720172 9.999995 0.000000
5 1 1 0.00 10.000000 0.000000 0.000000
6 1 1 0.00 8.999808 1.999988 0.000000
7 1 1 0.00 6.000248 8.000012 0.000000
8 1 1 0.00 5.279829 9.999993 0.000000
ITEM: TIMESTEP
14
ITEM: NUMBER OF ATOMS
8
ITEM: BOX BOUNDS pp pp pp
-100.000 100.000 
-100.000 100.000 
-100.000 100.000 
ITEM: ATOMS id mol type q xu yu zu
1 1 1 0.00 0.000000 0.000000 0.000000
2 1 1 0.00 1.000315 1.999991 0.000000
3 1 1 0.00 3.999588 8.000009 0.000000
4 1 1 0.00 4.720597 9.999994 0.000000
5 1 1 0.00 10.000000 0.000000 0.000000
6 1 1 0.00 8.999687 1.999986 0.000000
7 1 1 0.00 6.000410 8.000014 0.000000
8 1 1 0.00 5.279404 9.999992 0.000000
ITEM: TIMESTEP
16
ITEM: NUMBER OF ATOMS
8
ITEM: BOX BOUNDS pp pp pp
-100.000 100.000 
-100.000 100.000 
-100.000 100.000 
ITEM: ATOMS id mol type q xu yu zu
1 1 1 0.00 0.000000 0.000000 0.000000
2 1 1 0.00 1.000498 1.999989 0.000000
3 1 1 0.00 3.999341 8.000011 0.000000
4 1 1 0.00 4.721205 9.999993 0.000000
5 1 1 0.00 10.000000 0.000000 0.000000
6 1 1 0.00 8.999504 1.999984 0.000000
7 1 1 0.00 6.000657 8.000016 0.000000
8 1 1 0.00 5.278796 9.999991 0.000000
ITEM: TIMESTEP
18
ITEM: NUMBER OF ATOMS
8
ITEM: BOX BOUNDS pp pp pp
-100.000 100.000 
-100.000 100.000 
-100.000 100.000 
ITEM: ATOMS id mol type q xu yu zu
1 1 1 0.00 0.000000 0.000000 0.000000
2 1 1 0.00 1.000773 1.999988 0.000000
3 1 1 0.00 3.998966 8.000012 0.000000
4 1 1 0.00 4.722081 9.999993 0.000000
5 1 1 0.00 10.000000 0.000000 0.000000
6 1 1 0.00 8.999229 1.999982 0.000000
7 1 1 0.00 6.001032 8.000018 0.000000
8 1 1 0.00 5.277921 9.999989 0.000000
ITEM: TIMESTEP
20
ITEM: NUMBER OF ATOMS
8
ITEM: BOX BOUNDS pp pp pp
-100.000 100.000 
-100.000 100.000 
-100.000 100.000 
ITEM: ATOMS id mol type q xu yu zu
1 1 1 0.00 0.000000 0.000000 0.000000
2 1 1 0.00 1.001184 1.999987 0.000000
3 1 1 0.00 3.998400 8.000013 0.000000
4 1 1 0.00 4.723343 9.999992 0.000000
5 1 1 0.00 10.000000 0.000000 0.000000
6 1 1 0.00 8.998818 1.999980 0.000000
7 1 1 0.00 6.001597 8.000020 0.000000
8 1 1 0.00 5.276658 9.999988 0.000000
ITEM: TIMESTEP
22
ITEM: NUMBER OF ATOMS
8
ITEM: BOX BOUNDS pp pp pp
-100.000 100.000 
-100.000 100.000 
-100.000 100.000 
ITEM: ATOMS id mol type q xu yu zu
1 1 1 0.00 0.000000 0.000000 0.000000
2 1 1 0.00 1.001798 1.999985 0.000000
3 1 1 0.00 3.997552 8.000015 0.000000
4 1 1 0.00 4.725170 9.999991 0.000000
5 1 1 0.00 10.000000 0.000000 0.000000
6 1 1 0.00 8.998205 1.999978 0.000000
7 1 1 0.00 6.002445 8.000022 0.000000
8 1 1 0.00 5.274832 9.999987 0.000000
ITEM: TIMESTEP
24
ITEM: NUMBER OF ATOMS
8
ITEM: BOX BOUNDS pp pp pp
-100.000 100.000 
-100.000 100.000 
-100.000 100.000 
ITEM: ATOMS id mol type q xu yu zu
1 1 1 0.00 0.000000 0.000000 0.000000
2 1 1 0.00 1.002710 1.999984 0.000000
3 1 1 0.00 3.996284 8.000016 0.000000
4 1 1 0.00 4.727821 9.999990 0.000000
5 1 1 0.00 10.000000 0.000000 0.000000
6 1 1 0.00 8.997293 1.999976 0.000000
7 1 1 0.00 6.003713 8.000024 0.000000
8 1 1 0.00 5.272180 9.999986 0.000000
ITEM: TIMESTEP
26
ITEM: NUMBER OF ATOMS
8
ITEM: BOX BOUNDS pp pp pp
-100.000 100.000 
-100.000 100.000 
-100.000 100.000 
ITEM: ATOMS id mol type q xu yu zu
1 1 1 0.00 0.000000 0.000000 0.000000
2 1 1 0.00 1.004065 1.999982 0.000000
3 1 1 0.00 3.994393 8.000017 0.000000
4 1 1 0.00 4.731679 9.999989 0.000000
5 1 1 0.00 10.000000 0.000000 0.000000
6 1 1 0.00 8.995939 1.999974 0.000000
7 1 1 0.00 6.005603 8.000026 0.000000
8 1 1 0.00 5.268323 9.999985 0.000000
ITEM: TIMESTEP
28
ITEM: NUMBER OF ATOMS
8
ITEM: BOX BOUNDS pp pp pp
-100.000 100.000 
-100.000 100.000 
-100.000 100.000 
ITEM: ATOMS id mol type q xu yu zu
1 1 1 0.00 0.000000 0.000000 0.000000
2 1 1 0.00 1.006065 1.999981 0.000000
3 1 1 0.00 3.991593 8.000019 0.000000
4 1 1 0.00 4.737293 9.999988 0.000000
5 1 1 0.00 10.000000 0.000000 0.000000
6 1 1 0.00 8.993939 1.999972 0.000000
7 1 1 0.00 6.008403 8.000028 0.000000
8 1 1 0.00 5.262709 9.999984 0.000000
ITEM: TIMESTEP
30
ITEM: NUMBER OF ATOMS
8
ITEM: BOX BOUNDS pp pp pp
-100.000 100.000 
-100.000 100.000 
-100.000 100.000 
ITEM: ATOMS id mol type q xu yu zu
1 1 1 0.00 0.000000 0.000000 0.000000
2 1 1 0.00 1.008974 1.999980 0.000000
3 1 1 0.00 3.987517 8.000020 0.000000
4 1 1 0.00 4.745431 9.999988 0.000000
5 1 1 0.00 10.000000 0.000000 0.000000
6 1 1 0.00 8.991030 1.999970 0.000000
7 1 1 0.00 6.012479 8.000030 0.000000
8 1 1 0.00 5.254571 9.999982 0.000000
ITEM: TIMESTEP
32
ITEM: NUMBER OF ATOMS
8
ITEM: BOX BOUNDS pp pp pp
-100.000 100.000 
-100.000 100.000 
-100.000 100.000 
ITEM: ATOMS id mol type q xu yu zu
1 1 1 0.00 0.000000 0.000000 0.000000
2 1 1 0.00 1.012998 1.999978 0.000000
3 1 1 0.00 3.981914 8.000021 0.000000
4 1 1 0.00 4.756989 9.999987 0.000000
5 1 1 0.00 10.000000 0.000000 0.000000
6 1 1 0.00 8.987007 1.999968 0.000000
7 1 1 0.00 6.018082 8.000032 0.000000
8 1 1 0.00 5.243013 9.999981 0.000000
ITEM: TIMESTEP
34
ITEM: NUMBER OF ATOMS
8
ITEM: BOX BOUNDS pp pp pp
-100.000 100.000 
-100.000 100.000 
-100.000 100.000 
ITEM: ATOMS id mol type q xu yu zu
1 1 1 0.00 0.000000 0.000000 0.000000
2 1 1 0.00 1.017527 1.999977 0.000000
3 1 1 0.00 3.976347 8.000022 0.000000
4 1 1 0.00 4.771731 9.999987 0.000000
5 1 1 0.00 10.000000 0.000000 0.