ITEM: TIMESTEP
0
ITEM: NUMBER OF ATOMS
8
ITEM: BOX BOUNDS pp pp pp
-100.000 100.000 
-100.000 100.000 
-100.000 100.000 
ITEM: ATOMS id mol type q xu yu zu
1 1 1 0.00 0.000000 0.000000 0.000000
2 1 1 0.00 0.999999 2.000000 0.000000
3 1 1 0.00 4.000002 8.000000 0.000000
4 1 1 0.00 4.774999 10.000000 0.000000
5 1 1 0.00 10.000000 0.000000 0.000000
6 1 1 0.00 9.000002 2.000000 0.000000
7 1 1 0.00 5.999998 8.000000 0.000000
8 1 1 0.00 5.225002 10.000000 0.000000
ITEM: TIMESTEP
2
ITEM: NUMBER OF ATOMS
8
ITEM: BOX BOUNDS pp pp pp
-100.000 100.000 
-100.000 100.000 
-100.000 100.000 
ITEM: ATOMS id mol type q xu yu zu
1 1 1 0.00 0.000000 0.000000 0.000000
2 1 1 0.00 0.999985 1.999999 0.000000
3 1 1 0.00 4.000022 8.000001 0.000000
4 1 1 0.00 4.774977 9.999999 0.000000
5 1 1 0.00 10.000000 0.000000 0.000000
6 1 1 0.00 9.000016 1.999998 0.000000
7 1 1 0.00 5.999977 8.000002 0.000000
8 1 1 0.00 5.225023 9.999999 0.000000
ITEM: TIMESTEP
4
ITEM: NUMBER OF ATOMS
8
ITEM: BOX BOUNDS pp pp pp
-100.000 100.000 
-100.000 100.000 
-100.000 100.000 
ITEM: ATOMS id mol type q xu yu zu
1 1 1 0.00 0.000000 0.000000 0.000000
2 1 1 0.00 0.999952 1.999997 0.000000
3 1 1 0.00 4.000071 8.000003 0.000000
4 1 1 0.00 4.774906 9.999998 0.000000
5 1 1 0.00 10.000000 0.000000 0.000000
6 1 1 0.00 9.000049 1.999996 0.000000
7 1 1 0.00 5.999928 8.000004 0.000000
8 1 1 0.00 5.225094 9.999998 0.000000
ITEM: TIMESTEP
6
ITEM: NUMBER OF ATOMS
8
ITEM: BOX BOUNDS pp pp pp
-100.000 100.000 
-100.000 100.000 
-100.000 100.000 
ITEM: ATOMS id mol type q xu yu zu
1 1 1 0.00 0.000000 0.000000 0.000000
2 1 1 0.00 0.999891 1.999996 0.000000
3 1 1 0.00 4.000161 8.000004 0.000000
4 1 1 0.00 4.774772 9.999997 0.000000
5 1 1 0.00 10.000000 0.000000 0.000000
6 1 1 0.00 9.000110 1.999994 0.000000
7 1 1 0.00 5.999838 8.000006 0.000000
8 1 1 0.00 5.225229 9.999996 0.000000
ITEM: TIMESTEP
8
ITEM: NUMBER OF ATOMS
8
ITEM: BOX BOUNDS pp pp pp
-100.000 100.000 
-100.000 100.000 
-100.000 100.000 
ITEM: ATOMS id mol type q xu yu zu
1 1 1 0.00 0.000000 0.000000 0.000000
2 1 1 0.00 0.999791 1.999995 0.000000
3 1 1 0.00 4.000311 8.000005 0.000000
4 1 1 0.00 4.774548 9.999997 0.000000
5 1 1 0.00 10.000000 0.000000 0.000000
6 1 1 0.00 9.000210 1.999992 0.000000
7 1 1 0.00 5.999688 8.000008 0.000000
8 1 1 0.00 5.225453 9.999995 0.000000
ITEM: TIMESTEP
10
ITEM: NUMBER OF ATOMS
8
ITEM: BOX BOUNDS pp pp pp
-100.000 100.000 
-100.000 100.000 
-100.000 100.000 
ITEM: ATOMS id mol type q xu yu zu
1 1 1 0.00 0.000000 0.000000 0.000000
2 1 1 0.00 0.999633 1.999993 0.000000
3 1 1 0.00 4.000547 8.000007 0.000000
4 1 1 0.00 4.774192 9.999996 0.000000
5 1 1 0.00 10.000000 0.000000 0.000000
6 1 1 0.00 9.000368 1.999990 0.000000
7 1 1 0.00 5.999451 8.000010 0.000000
8 1 1 0.00 5.225809 9.999994 0.000000
ITEM: TIMESTEP
12
ITEM: NUMBER OF ATOMS
8
ITEM: BOX BOUNDS pp pp pp
-100.000 100.000 
-100.000 100.000 
-100.000 100.000 
ITEM: ATOMS id mol type q xu yu zu
1 1 1 0.00 0.000000 0.000000 0.000000
2 1 1 0.00 0.999393 1.999992 0.000000
3 1 1 0.00 4.000907 8.000008 0.000000
4 1 1 0.00 4.773646 9.999995 0.000000
5 1 1 0.00 10.000000 0.000000 0.000000
6 1 1 0.00 9.000608 1.999988 0.000000
7 1 1 0.00 5.999091 8.000012 0.000000
8 1 1 0.00 5.226354 9.999993 0.000000
ITEM: TIMESTEP
14
ITEM: NUMBER OF ATOMS
8
ITEM: BOX BOUNDS pp pp pp
-100.000 100.000 
-100.000 100.000 
-100.000 100.000 
ITEM: ATOMS id mol type q xu yu zu
1 1 1 0.00 0.000000 0.000000 0.000000
2 1 1 0.00 0.999039 1.999991 0.000000
3 1 1 0.00 4.001441 8.000009 0.000000
4 1 1 0.00 4.772827 9.999994 0.000000
5 1 1 0.00 10.000000 0.000000 0.000000
6 1 1 0.00 9.000964 1.999986 0.000000
7 1 1 0.00 5.998557 8.000014 0.000000
8 1 1 0.00 5.227174 9.999992 0.000000
ITEM: TIMESTEP
16
ITEM: NUMBER OF ATOMS
8
ITEM: BOX BOUNDS pp pp pp
-100.000 100.000 
-100.000 100.000 
-100.000 100.000 
ITEM: ATOMS id mol type q xu yu zu
1 1 1 0.00 0.000000 0.000000 0.000000
2 1 1 0.00 0.998528 1.999989 0.000000
3 1 1 0.00 4.002213 8.000011 0.000000
4 1 1 0.00 4.771621 9.999993 0.000000
5 1 1 0.00 10.000000 0.000000 0.000000
6 1 1 0.00 9.001475 1.999984 0.000000
7 1 1 0.00 5.997784 8.000016 0.000000
8 1 1 0.00 5.228381 9.999991 0.000000
ITEM: TIMESTEP
18
ITEM: NUMBER OF ATOMS
8
ITEM: BOX BOUNDS pp pp pp
-100.000 100.000 
-100.000 100.000 
-100.000 100.000 
ITEM: ATOMS id mol type q xu yu zu
1 1 1 0.00 0.000000 0.000000 0.000000
2 1 1 0.00 0.997813 1.999988 0.000000
3 1 1 0.00 4.003302 8.000012 0.000000
4 1 1 0.00 4.769886 9.999993 0.000000
5 1 1 0.00 10.000000 0.000000 0.000000
6 1 1 0.00 9.002190 1.999982 0.000000
7 1 1 0.00 5.996695 8.000018 0.000000
8 1 1 0.00 5.230116 9.999989 0.000000
ITEM: TIMESTEP
20
ITEM: NUMBER OF ATOMS
8
ITEM: BOX BOUNDS pp pp pp
-100.000 100.000 
-100.000 100.000 
-100.000 100.000 
ITEM: ATOMS id mol type q xu yu zu
1 1 1 0.00 0.000000 0.000000 0.000000
2 1 1 0.00 0.996851 1.999987 0.000000
3 1 1 0.00 4.004791 8.000013 0.000000
4 1 1 0.00 4.767454 9.999992 0.000000
5 1 1 0.00 10.000000 0.000000 0.000000
6 1 1 0.00 9.003152 1.999980 0.000000
7 1 1 0.00 5.995207 8.000020 0.000000
8 1 1 0.00 5.232548 9.999988 0.000000
ITEM: TIMESTEP
22
ITEM: NUMBER OF ATOMS
8
ITEM: BOX BOUNDS pp pp pp
-100.000 100.000 
-100.000 100.000 
-100.000 100.000 
ITEM: ATOMS id mol type q xu yu zu
1 1 1 0.00 0.000000 0.000000 0.000000
2 1 1 0.00 0.995617 1.999985 0.000000
3 1 1 0.00 4.006765 8.000015 0.000000
4 1 1 0.00 4.764155 9.999991 0.000000
5 1 1 0.00 10.000000 0.000000 0.000000
6 1 1 0.00 9.004386 1.999978 0.000000
7 1 1 0.00 5.993232 8.000022 0.000000
8 1 1 0.00 5.235846 9.999987 0.000000
ITEM: TIMESTEP
24
ITEM: NUMBER OF ATOMS
8
ITEM: BOX BOUNDS pp pp pp
-100.000 100.000 
-100.000 100.000 
-100.000 100.000 
ITEM: ATOMS id mol type q xu yu zu
1 1 1 0.00 0.000000 0.000000 0.000000
2 1 1 0.00 0.994150 1.999984 0.000000
3 1 1 0.00 4.009441 8.000016 0.000000
4 1 1 0.00 4.759957 9.999990 0.000000
5 1 1 0.00 10.000000 0.000000 0.000000
6 1 1 0.00 9.005854 1.999976 0.000000
7 1 1 0.00 5.990555 8.000024 0.000000
8 1 1 0.00 5.240045 9.999986 0.000000
ITEM: TIMESTEP
26
ITEM: NUMBER OF ATOMS
8
ITEM: BOX BOUNDS pp pp pp
-100.000 100.000 
-100.000 100.000 
-100.000 100.000 
ITEM: ATOMS id mol type q xu yu zu
1 1 1 0.00 0.000000 0.000000 0.000000
2 1 1 0.00 0.994136 1.999984 0.000000
3 1 1 0.00 4.009457 8.000016 0.000000
4 1 1 0.00 4.759955 9.999990 0.000000
5 1 1 0.00 10.000000 0.000000 0.000000
6 1 1 0.00 9.005868 1.999976 0.000000
7 1 1 0.00 5.990539 8.000024 0.000000
8 1 1 0.00 5.240047 9.999986 0.000000
ITEM: TIMESTEP
28
ITEM: NUMBER OF ATOMS
8
ITEM: BOX BOUNDS pp pp pp
-100.000 100.000 
-100.000 100.000 
-100.000 100.000 
ITEM: ATOMS id mol type q xu yu zu
1 1 1 0.00 0.000000 0.000000 0.000000
2 1 1 0.00 0.994087 1.999984 0.000000
3 1 1 0.00 4.009518 8.000016 0.000000
4 1 1 0.00 4.759953 9.999990 0.000000
5 1 1 0.00 10.000000 0.000000 0.000000
6 1 1 0.00 9.005917 1.999976 0.000000
7 1 1 0.00 5.990478 8.000024 0.000000
8 1 1 0.00 5.240049 9.999986 0.000000
ITEM: TIMESTEP
30
ITEM: NUMBER OF ATOMS
8
ITEM: BOX BOUNDS pp pp pp
-100.000 100.000 
-100.000 100.000 
-100.000 100.000 
ITEM: ATOMS id mol type q xu yu zu
1 1 1 0.00 0.000000 0.000000 0.000000
2 1 1 0.00 0.993986 1.999984 0.000000
3 1 1 0.00 4.009653 8.000016 0.000000
4 1 1 0.00 4.759959 9.999990 0.000000
5 1 1 0.00 10.000000 0.000000 0.000000
6 1 1 0.00 9.006017 1.999976 0.000000
7 1 1 0.00 5.990344 8.000024 0.000000
8 1 1 0.00 5.240043 9.999986 0.000000
ITEM: TIMESTEP
32
ITEM: NUMBER OF ATOMS
8
ITEM: BOX BOUNDS pp pp pp
-100.000 100.000 
-100.000 100.000 
-100.000 100.000 
ITEM: ATOMS id mol type q xu yu zu
1 1 1 0.00 0.000000 0.000000 0.000000
2 1 1 0.00 0.993811 1.999984 0.000000
3 1 1 0.00 4.009903 8.000016 0.000000
4 1 1 0.00 4.759984 9.999990 0.000000
5 1 1 0.00 10.000000 0.000000 0.000000
6 1 1 0.00 9.006192 1.999976 0.000000
7 1 1 0.00 5.990094 8.000024 0.000000
8 1 1 0.00 5.240018 9.999986 0.000000
ITEM: TIMESTEP
34
ITEM: NUMBER OF ATOMS
8
ITEM: BOX BOUNDS pp pp pp
-100.000 100.000 
-100.000 100.000 
-100.000 100.000 
ITEM: ATOMS id mol type q xu yu zu
1 1 1 0.00 0.000000 0.000000 0.000000
2 1 1 0.00 0.993526 1.999984 0.000000
3 1 1 0.00 4.010332 8.000016 0.000000
4 1 1 0.00 4.760041 9.999990 0.000000
5 1 1 0.00 10.000000 0.000000 0.000000
6 1 1 0.00 9.006478 1.999976 0.000000
7 1 1 0.00 5.989664 8.000024 0.000000
8 1 1 0.00 5.239961 9.999986 0.000000
ITEM: TIMESTEP
36
ITEM: NUMBER OF ATOMS
8
ITEM: BOX BOUNDS pp pp pp
-100.000 100.000 
-100.000 100.000 
-100.000 100.000 
ITEM: ATOMS id mol type q xu yu zu
1 1 1 0.00 0.000000 0.000000 0.000000
2 1 1 0.00 0.993073 1.999984 0.000000
3 1 1 0.00 4.011045 8.000015 0.000000
4 1 1 0.00 4.760149 9.999991 0.000000
5 1 1 0.00 10.000000 0.000000 0.000000
6 1 1 0.00 9.006930 1.999976 0.000000
7 1 1 0.00 5.988952 8.000023 0.000000
8 1 1 0.00 5.239852 9.999986 0.000000
ITEM: TIMESTEP
38
ITEM: NUMBER OF ATOMS
8
ITEM: BOX BOUNDS pp pp pp
-100.000 100.000 
-100.000 100.000 
-100.000 100.000 
ITEM: ATOMS id mol type q xu yu zu
1 1 1 0.00 0.000000 0.000000 0.000000
2 1 1 0.00 0.992365 1.999984 0.000000
3 1 1 0.00 4.012209 8.000015 0.000000
4 1 1 0.00 4.760325 9.999991 0.000000
5 1 1 0.00 10.000000 0.000000 0.000000
6 1 1 0.00 9.007639 1.999977 0.000000
7 1 1 0.00 5.987788 8.000023 0.000000
8 1 1 0.00 5.239677 9.999986 0.000000
ITEM: TIMESTEP
40
ITEM: NUMBER OF ATOMS
8
ITEM: BOX BOUNDS pp pp pp
-100.000 100.000 
-100.000 100.000 
-100.000 100.000 
ITEM: ATOMS id mol type q xu yu zu
1 1 1 0.00 0.000000 0.000000 0.000000
2 1 1 0.00 0.991253 1.999985 0.000000
3 1 1 0.00 4.014115 8.000014 0.000000
4 1 1 0.00 4.760567 9.999991 0.000000
5 1 1 0.00 10.000000 0.000000 0.000000
6 1 1 0.00 9.008750 1.999977 0.000000
7 1 1 0.00 5.985882 8.000023 0.000000
8 1 1 0.00 5.239435 9.999986 0.000000
ITEM: TIMESTEP
42
ITEM: NUMBER OF ATOMS
8
ITEM: BOX BOUNDS pp pp pp
-100.000 100.000 
-100.000 100.000 
-100.000 100.000 
ITEM: ATOMS id mol type q xu yu zu
1 1 1 0.00 0.000000 0.000000 0.000000
2 1 1 0.00 0.989497 1.999985 0.000000
3 1 1 0.00 4.017264 8.000014 0.000000
4 1 1 0.00 4.760812 9.999992 0.000000
5 1 1 0.00 10.000000 0.000000 0.000000
6 1 1 0.00 9.010506 1.999977 0.000000
7 1 1 0.00 5.982733 8.000022 0.000000
8 1 1 0.00 5.239190 9.999987 0.000000
ITEM: TIMESTEP
44
ITEM: NUMBER OF ATOMS
8
ITEM: BOX BOUNDS pp pp pp
-100.000 100.000 
-100.000 100.000 
-100.000 100.000 
ITEM: ATOMS id mol type q xu yu zu
1 1 1 0.00 0.000000 0.000000 0.000000
2 1 1 0.00 0.986713 1.999986 0.000000
3 1 1 0.00 4.022484 8.000012 0.000000
4 1 1 0.00 4.760890 9.999993 0.000000
5 1 1 0.00 10.000000 0.000000 0.000000
6 1 1 0.00 9.013290 1.999978 0.000000
7 1 1 0.00 5.977513 8.000021 0.000000
8 1 1 0.00 5.239112 9.999987 0.000000
ITEM: TIMESTEP
46
ITEM: NUMBER OF ATOMS
8
ITEM: BOX BOUNDS pp pp pp
-100.000 100.000 
-100.000 100.000 
-100.000 100.000 
ITEM: ATOMS id mol type q xu yu zu
1 1 1 0.00 0.000000 0.000000 0.000000
2 1 1 0.00 0.982366 1.999987 0.000000
3 1 1 0.00 4.030967 8.000010 0.000000
4 1 1 0.00 4.760630 9.999994 0.000000
5 1 1 0.00 10.000000 0.000000 0.000000
6 1 1 0.00 9.017638 1.999979 0.000000
7 1 1 0.00 5.969030 8.000019 0.000000
8 1 1 0.00 5.239371 9.999988 0.000000
ITEM: TIMESTEP
48
ITEM: NUMBER OF ATOMS
8
ITEM: BOX BOUNDS pp pp pp
-100.000 100.000 
-100.000 100.000 
-100.000 100.000 
ITEM: ATOMS id mol type q xu yu zu
1 1 1 0.00 0.000000 0.000000 0.000000
2 1 1 0.00 0.975811 1.999989 0.000000
3 1 1 0.00 4.044133 8.000007 0.000000
4 1 1 0.00 4.760280 9.999997 0.000000
5 1 1 0.00 10.000000 0.000000 0.000000
6 1 1 0.00 9.024192 1.999980 0.000000
7 1 1 0.00 5.955864 8.000016 0.000000
8 1 1 0.00 5.239722 9.999989 0.000000
ITEM: TIMESTEP
50
ITEM: NUMBER OF ATOMS
8
ITEM: BOX BOUNDS pp pp pp
-100.000 100.000 
-100.000 100.000 
-100.000 100.000 
ITEM: ATOMS id mol type q xu yu zu
1 1 1 0.00 0.000000 0.000000 0.000000
2 1 1 0.00 0.966130 1.999992 0.000000
3 1 1 0.00 4.063878 8.000002 0.000000
4 1 1 0.00 4.760343 10.000001 0.000000
5 1 1 0.00 10.000000 0.000000 0.000000
6 1 1 0.00 9.033873 1.999982 0.000000
7 1 1 0.00 5.936120 8.000013 0.000000
8 1 1 0.00 5.239658 9.999991 0.000000
ITEM: TIMESTEP
52
ITEM: NUMBER OF ATOMS
8
ITEM: BOX BOUNDS pp pp pp
-100.000 100.000 
-100.000 100.000 
-100.000 100.000 
ITEM: ATOMS id mol type q xu yu zu
1 1 1 0.00 0.000000 0.000000 0.000000
2 1 1 0.00 0.951435 1.999996 0.000000
3 1 1 0.00 4.094172 7.999995 0.000000
4 1 1 0.00 4.760231 10.000007 0.000000
5 1 1 0.00 10.000000 0.000000 0.000000
6 1 1 0.00 9.048568 1.999985 0.000000
7 1 1 0.00 5.905826 8.000007 0.000000
8 1 1 0.00 5.239769 9.999993 0.000000
ITEM: TIMESTEP
54
ITEM: NUMBER OF ATOMS
8
ITEM: BOX BOUNDS pp pp pp
-100.000 100.000 
-100.000 100.000 
-100.000 100.000 
ITEM: ATOMS id mol type q xu yu zu
1 1 1 0.00 0.000000 0.000000 0.000000
2 1 1 0.00 0.928932 2.000003 0.000000
3 1 1 0.00 4.140868 7.999983 0.000000
4 1 1 0.00 4.759540 10.000018 0.000000
5 1 1 0.00 10.000000 0.000000 0.000000
6 1 1 0.00 9.071070 1.999989 0.000000
7 1 1 0.00 5.859132 7.999999 0.000000
8 1 1 0.00 5.240459 9.999996 0.000000
ITEM: TIMESTEP
56
ITEM: NUMBER OF ATOMS
8
ITEM: BOX BOUNDS pp pp pp
-100.000 100.000 
-100.000 100.000 
-100.000 100.000 
ITEM: ATOMS id mol type q xu yu zu
1 1 1 0.00 0.000000 0.000000 0.000000
2 1 1 0.00 0.895390 2.000013 0.000000
3 1 1 0.00 4.210309 7.999965 0.000000
4 1 1 0.00 4.759090 10.000036 0.000000
5 1 1 0.00 10.000000 0.000000 0.000000
6 1 1 0.00 9.104610 1.999994 0.000000
7 1 1 0.00 5.789694 7.999989 0.000000
8 1 1 0.00 5.240908 9.999997 0.000000
ITEM: TIMESTEP
58
ITEM: NUMBER OF ATOMS
8
ITEM: BOX BOUNDS pp pp pp
-100.000 100.000 
-100.000 100.000 
-100.000 100.000 
ITEM: ATOMS id mol type q xu yu zu
1 1 1 0.00 0.000000 0.000000 0.000000
2 1 1 0.00 0.852147 2.000028 0.000000
3 1 1 0.00 4.300229 7.999939 0.000000
4 1 1 0.00 4.758094 10.000064 0.000000
5 1 1 0.00 10.000000 0.000000 0.000000
6 1 1 0.00 9.147849 1.999999 0.000000
7 1 1 0.00 5.699781 7.999979 0.000000
8 1 1 0.00 5.241899 9.999992 0.000000
ITEM: TIMESTEP
60
ITEM: NUMBER OF ATOMS
8
ITEM: BOX BOUNDS pp pp pp
-100.000 100.000 
-100.000 100.000 
-100.000 100.000 
ITEM: ATOMS id mol type q xu yu zu
1 1 1 0.00 0.000000 0.000000 0.000000
2 1 1 0.00 0.799171 2.000050 0.000000
3 1 1 0.00 4.412021 7.999902 0.000000
4 1 1 0.00 4.756193 10.000113 0.000000
5 1 1 0.00 10.000000 0.000000 0.000000
6 1 1 0.00 9.200818 1.999999 0.000000
7 1 1 0.00 5.588004 7.999973 0.000000
8 1 1 0.00 5.243790 9.999971 0.000000
ITEM: TIMESTEP
62
ITEM: NUMBER OF ATOMS
8
ITEM: BOX BOUNDS pp pp pp
-100.000 100.000 
-100.000 100.000 
-100.000 100.000 
ITEM: ATOMS id mol type q xu yu zu
1 1 1 0.00 0.000000 0.000000 0.000000
2 1 1 0.00 0.735078 2.000086 0.000000
3 1 1 0.00 4.549598 7.999845 0.000000
4 1 1 0.00 4.753170 10.000206 0.000000
5 1 1 0.00 10.000000 0.000000 0.000000
6 1 1 0.00 9.264896 1.999990 0.000000
7 1 1 0.00 5.450455 7.999980 0.000000
8 1 1 0.00 5.246792 9.999911 0.000000
ITEM: TIMESTEP
64
ITEM: NUMBER OF ATOMS
8
ITEM: BOX BOUNDS pp pp pp
-100.000 100.000 
-100.000 100.000 
-100.000 100.000 
ITEM: ATOMS id mol type q xu yu zu
1 1 1 0.00 0.000000 0.000000 0.000000
2 1 1 0.00 0.657474 2.000151 0.000000
3 1 1 0.00 4.718677 7.999745 0.000000
4 1 1 0.00 4.747385 10.000398 0.000000
5 1 1 0.00 10.000000 0.000000 0.000000
6 1 1 0.00 9.342468 1.999955 0.000000
7 1 1 0.00 5.281442 8.000022 0.000000
8 1 1 0.00 5.252532 9.999758 0.000000
ITEM: TIMESTEP
66
ITEM: NUMBER OF ATOMS
8
ITEM: BOX BOUNDS pp pp pp
-100.000 100.000 
-100.000 100.000 
-100.000 100.000 
ITEM: ATOMS id mol type q xu yu zu
1 1 1 0.00 0.000000 0.000000 0.000000
2 1 1 0.00 0.563025 2.000286 0.000000
3 1 1 0.00 4.924838 7.999548 0.000000
4 1 1 0.00 4.733854 10.000824 0.000000
5 1 1 0.00 10.000000 0.000000 0.000000
6 1 1 0.00 9.436841 1.999856 0.000000
7 1 1 0.00 5.075432 8.000151 0.000000
8 1 1 0.00 5.265957 9.999377 0.000000
ITEM: TIMESTEP
68
ITEM: NUMBER OF ATOMS
8
ITEM: BOX BOUNDS pp pp pp
-100.000 100.000 
-100.000 100.000 
-100.000 100.000 
ITEM: ATOMS id mol type q xu yu zu
1 1 1 0.00 0.000000 0.000000 0.000000
2 1 1 0.00 0.453291 2.000555 0.000000
3 1 1 0.00 5.156482 7.999159 0.000000
4 1 1 0.00 4.713507 10.001619 0.000000
5 1 1 0.00 10.000000 0.000000 0.000000
6 1 1 0.00 9.546395 1.999627 0.000000
7 1 1 0.00 4.844116 8.000463 0.000000
8 1 1 0.00 5.286088 9.998632 0.000000
ITEM: TIMESTEP
70
ITEM: NUMBER OF ATOMS
8
ITEM: BOX BOUNDS pp pp pp
-100.000 100.000 
-100.000 100.000 
-100.000 100.000 
ITEM: ATOMS id mol type q xu yu zu
1 1 1 0.00 0.000000 0.000000 0.000000
2 1 1 0.00 0.331060 2.000963 0.000000
3 1 1 0.00 5.406275 7.998574 0.000000
4 1 1 0.00 4.680608 10.002847 0.000000
5 1 1 0.00 10.000000 0.000000 0.000000
6 1 1 0.00 9.668337 1.999270 0.000000
7 1 1 0.00 4.594834 8.000956 0.000000
8 1 1 0.00 5.318657 9.997463 0.000000
ITEM: TIMESTEP
72
ITEM: NUMBER OF ATOMS
8
ITEM: BOX BOUNDS pp pp pp
-100.000 100.000 
-100.000 100.000 
-100.000 100.000 
ITEM: ATOMS id mol type q xu yu zu
1 1 1 0.00 0.000000 0.000000 0.000000
2 1 1 0.00 0.196667 2.001304 0.000000
3 1 1 0.00 5.686924 7.998107 0.000000
4 1 1 0.00 4.612130 10.003974 0.000000
5 1 1 0.00 10.000000 0.000000 0.000000
6 1 1 0.00 9.802797 1.998993 0.000000
7 1 1 0.00 4.314175 8.001310 0.000000
8 1 1 0.00 5.387114 9.996409 0.000000
ITEM: TIMESTEP
74
ITEM: NUMBER OF ATOMS
8
ITEM: BOX BOUNDS pp pp pp
-100.000 100.000 
-100.000 100.000 
-100.000 100.000 
ITEM: ATOMS id mol type q xu yu zu
1 1 1 0.00 0.000000 0.000000 0.000000
2 1 1 0.00 0.065642 2.001491 0.000000
3 1 1 0.00 5.967510 7.997804 0.000000
4 1 1 0.00 4.532568 10.004324 0.000000
5 1 1 0.00 10.000000 0.000000 0.000000
6 1 1 0.00 9.934250 1.998879 0.000000
7 1 1 0.00 4.032981 8.001479 0.000000
8 1 1 0.00 5.467034 9.996144 0.000000
ITEM: TIMESTEP
76
ITEM: NUMBER OF ATOMS
8
ITEM: BOX BOUNDS pp pp pp
-100.000 100.000 
-100.000 100.000 
-100.000 100.000 
ITEM: ATOMS id mol type q xu yu zu
1 1 1 0.00 0.000000 0.000000 0.000000
2 1 1 0.00 -0.048253 2.001582 0.000000
3 1 1 0.00 6.230267 7.997553 0.000000
4 1 1 0.00 4.446904 10.003974 0.000000
5 1 1 0.00 10.000000 0.000000 0.000000
6 1 1 0.00 10.048679 1.998871 0.000000
7 1 1 0.00 3.769335 8.001576 0.000000
8 1 1 0.00 5.553279 9.996595 0.000000
ITEM: TIMESTEP
78
ITEM: NUMBER OF ATOMS
8
ITEM: BOX BOUNDS pp pp pp
-100.000 100.000 
-100.000 100.000 
-100.000 100.000 
ITEM: ATOMS id mol type q xu yu zu
1 1 1 0.00 0.000000 0.000000 0.000000
2 1 1 0.00 -0.045488 2.001556 0.000000
3 1 1 0.00 6.230539 7.997568 0.000000
4 1 1 0.00 4.439130 10.004013 0.000000
5 1 1 0.00 10.000000 0.000000 0.000000
6 1 1 0.00 10.045935 1.998899 0.000000
7 1 1 0.00 3.769023 8.001558 0.000000
8 1 1 0.00 5.561093 9.996558 0.000000
ITEM: TIMESTEP
80
ITEM: NUMBER OF ATOMS
8
ITEM: BOX BOUNDS pp pp pp
-100.000 100.000 
-100.000 100.000 
-100.000 100.000 
ITEM: ATOMS id mol type q xu yu zu
1 1 1 0.00 0.000000 0.000000 0.000000
2 1 1 0.00 -0.042461 2.001524 0.000000
3 1 1 0.00 6.230236 7.997590 0.000000
4 1 1 0.00 4.431285 10.004066 0.000000
5 1 1 0.00 10.000000 0.000000 0.000000
6 1 1 0.00 10.042909 1.998934 0.000000
7 1 1 0.00 3.769313 8.001532 0.000000
8 1 1 0.00 5.568962 9.996508 0.000000
ITEM: TIMESTEP
82
ITEM: NUMBER OF ATOMS
8
ITEM: BOX BOUNDS pp pp pp
-100.000 100.000 
-100.000 100.000 
-100.000 100.000 
ITEM: ATOMS id mol type q xu yu zu
1 1 1 0.00 0.000000 0.000000 0.000000
2 1 1 0.00 -0.042157 2.001515 0.000000
3 1 1 0.00 6.229795 7.997597 0.000000
4 1 1 0.00 4.432699 10.004077 0.000000
5 1 1 0.00 10.000000 0.000000 0.000000
6 1 1 0.00 10.042570 1.998945 0.000000
7 1 1 0.00 3.769803 8.001522 0.000000
8 1 1 0.00 5.567519 9.996498 0.000000
ITEM: TIMESTEP
84
ITEM: NUMBER OF ATOMS
8
ITEM: BOX BOUNDS pp pp pp
-100.000 100.000 
-100.000 100.000 
-100.000 100.000 
ITEM: ATOMS id mol type q xu yu zu
1 1 1 0.00 0.000000 0.000000 0.000000
2 1 1 0.00 -0.041205 2.001492 0.000000
3 1 1 0.00 6.228928 7.997617 0.000000
4 1 1 0.00 4.435652 10.004110 0.000000
5 1 1 0.00 10.000000 0.000000 0.000000
6 1 1 0.00 10.041542 1.998972 0.000000
7 1 1 0.00 3.770779 8.001497 0.000000
8 1 1 0.00 5.564501 9.996468 0.000000
ITEM: TIMESTEP
86
ITEM: NUMBER OF ATOMS
8
ITEM: BOX BOUNDS pp pp pp
-100.000 100.000 
-100.000 100.000 
-100.000 100.000 
ITEM: ATOMS id mol type q xu yu zu
1 1 1 0.00 0.000000 0.000000 0.000000
2 1 1 0.00 -0.038865 2.001448 0.000000
3 1 1 0.00 6.227539 7.997662 0.000000
4 1 1 0.00 4.438217 10.004177 0.000000
5 1 1 0.00 10.000000 0.000000 0.000000
6 1 1 0.00 10.039084 1.999023 0.000000
7 1 1 0.00 3.772334 8.001440 0.000000
8 1 1 0.00 5.561841 9.996407 0.000000
ITEM: TIMESTEP
88
ITEM: NUMBER OF ATOMS
8
ITEM: BOX BOUNDS pp pp pp
-100.000 100.000 
-100.000 100.000 
-100.000 100.000 
ITEM: ATOMS id mol type q xu yu zu
1 1 1 0.00 0.000000 0.000000 0.000000
2 1 1 0.00 -0.034353 2.001374 0.000000
3 1 1 0.00 6.225607 7.997743 0.000000
4 1 1 0.00 4.437287 10.004275 0.000000
5 1 1 0.00 10.000000 0.000000 0.000000
6 1 1 0.00 10.034426 1.999109 0.000000
7 1 1 0.00 3.774464 8.001339 0.000000
8 1 1 0.00 5.562665 9.996320 0.000000
ITEM: TIMESTEP
90
ITEM: NUMBER OF ATOMS
8
ITEM: BOX BOUNDS pp pp pp
-100.000 100.000 
-100.000 100.000 
-100.000 100.000 
ITEM: ATOMS id mol type q xu yu zu
1 1 1 0.00 0.000000 0.000000 0.000000
2 1 1 0.00 -0.031010 2.001324 0.000000
3 1 1 0.00 6.224742 7.997806 0.000000
4 1 1 0.00 4.435998 10.004329 0.000000
5 1 1 0.00 10.000000 0.000000 0.000000
6 1 1 0.00 10.030997 1.999169 0.000000
7 1 1 0.00 3.775446 8.001261 0.000000
8 1 1 0.00 5.563893 9.996275 0.000000
ITEM: TIMESTEP
92
ITEM: NUMBER OF ATOMS
8
ITEM: BOX BOUNDS pp pp pp
-100.000 100.000 
-100.000 100.000 
-100.000 100.000 
ITEM: ATOMS id mol type q xu yu zu
1 1 1 0.00 0.000000 0.000000 0.000000
2 1 1 0.00 -0.030710 2.001315 0.000000
3 1 1 0.00 6.224764 7.997819 0.000000
4 1 1 0.00 4.436636 10.004321 0.000000
5 1 1 0.00 10.000000 0.000000 0.000000
6 1 1 0.00 10.030681 1.999180 0.000000
7 1 1 0.00 3.775442 8.001245 0.000000
8 1 1 0.00 5.563244 9.996285 0.000000
ITEM: TIMESTEP
94
ITEM: NUMBER OF ATOMS
8
ITEM: BOX BOUNDS pp pp pp
-100.000 100.000 
-100.000 100.000 
-100.000 100.000 
ITEM: ATOMS id mol type q xu yu zu
1 1 1 0.00 0.000000 0.000000 0.000000
2 1 1 0.00 -0.029698 2.001294 0.000000
3 1 1 0.00 6.225059 7.997850 0.000000
4 1 1 0.00 4.437689 10.004301 0.000000
5 1 1 0.00 10.000000 0.000000 0.000000
6 1 1 0.00 10.029639 1.999207 0.000000
7 1 1 0.00 3.775184 8.001205 0.000000
8 1 1 0.00 5.562171 9.996311 0.000000
ITEM: TIMESTEP
96
ITEM: NUMBER OF ATOMS
8
ITEM: BOX BOUNDS pp pp pp
-100.000 100.000 
-100.000 100.000 
-100.000 100.000 
ITEM: ATOMS id mol type q xu yu zu
1 1 1 0.00 0.000000 0.000000 0.000000
2 1 1 0.00 -0.027237 2.001253 0.000000
3 1 1 0.00 6.225706 7.997911 0.000000
4 1 1 0.00 4.437237 10.004264 0.000000
5 1 1 0.00 10.000000 0.000000 0.000000
6 1 1 0.00 10.027138 1.999259 0.000000
7 1 1 0.00 3.774580 8.001126 0.000000
8 1 1 0.00 5.562603 9.996358 0.000000
ITEM: TIMESTEP
98
ITEM: NUMBER OF ATOMS
8
ITEM: BOX BOUNDS pp pp pp
-100.000 100.000 
-100.000 100.000 
-100.000 100.000 
ITEM: ATOMS id mol type q xu yu zu
1 1 1 0.00 0.000000 0.000000 0.000000
2 1 1 0.00 -0.022483 2.001184 0.000000
3 1 1 0.00 6.226934 7.998019 0.000000
4 1 1 0.00 4.435191 10.004209 0.000000
5 1 1 0.00 10.000000 0.000000 0.000000
6 1 1 0.00 10.022322 1.999347 0.000000
7 1 1 0.00 3.773416 8.000988 0.000000
8 1 1 0.00 5.564622 9.996431 0.000000
ITEM: TIMESTEP
100
ITEM: NUMBER OF ATOMS
8
ITEM: BOX BOUNDS pp pp pp
-100.000 100.000 
-100.000 100.000 
-100.000 100.000 
ITEM: ATOMS id mol type q xu yu zu
1 1 1 0.00 0.000000 0.000000 0.000000
2 1 1 0.00 -0.014687 2.001073 0.000000
3 1 1 0.00 6.229339 7.998193 0.000000
4 1 1 0.00 4.435254 10.004141 0.000000
5 1 1 0.00 10.000000 0.000000 0.000000
6 1 1 0.00 10.014403 1.999486 0.000000
7 1 1 0.00 3.771155 8.000766 0.000000
8 1 1 0.00 5.564487 9.996528 0.000000
ITEM: TIMESTEP
102
ITEM: NUMBER OF ATOMS
8
ITEM: BOX BOUNDS pp pp pp
-100.000 100.000 
-100.000 100.000 
-100.000 100.000 
ITEM: ATOMS id mol type q xu yu zu
1 1 1 0.00 0.000000 0.000000 0.000000
2 1 1 0.00 -0.002341 2.000912 0.000000
3 1 1 0.00 6.232424 7.998452 0.000000
4 1 1 0.00 4.431780 10.004073 0.000000
5 1 1 0.00 10.000000 0.000000 0.000000
6 1 1 0.00 10.001892 1.999688 0.000000
7 1 1 0.00 3.768261 8.000436 0.000000
8 1 1 0.00 5.567869 9.996639 0.000000
ITEM: TIMESTEP
104
ITEM: NUMBER OF ATOMS
8
ITEM: BOX BOUNDS pp pp pp
-100.000 100.000 
-100.000 100.000 
-100.000 100.000 
ITEM: ATOMS id mol type q xu yu zu
1 1 1 0.00 0.000000 0.000000 0.000000
2 1 1 0.00 0.012934 2.000725 0.000000
3 1 1 0.00 6.237102 7.998760 0.000000
4 1 1 0.00 4.430884 10.003994 0.000000
5 1 1 0.00 10.000000 0.000000 0.000000
6 1 1 0.00 9.986416 1.999924 0.000000
7 1 1 0.00 3.763827 8.000044 0.000000
8 1 1 0.00 5.568639 9.996772 0.000000
ITEM: TIMESTEP
106
ITEM: NUMBER OF ATOMS
8
ITEM: BOX BOUNDS pp pp pp
-100.000 100.000 
-100.000 100.000 
-100.000 100.000 
ITEM: ATOMS id mol type q xu yu zu
1 1 1 0.00 0.000000 0.000000 0.000000
2 1 1 0.00 0.031467 2.000518 0.000000
3 1 1 0.00 6.242614 7.999105 0.000000
4 1 1 0.00 4.425891 10.003880 0.000000
5 1 1 0.00 10.000000 0.000000 0.000000
6 1 1 0.00 9.967694 2.000186 0.000000
7 1 1 0.00 3.758527 7.999601 0.000000
8 1 1 0.00 5.573531 9.996947 0.000000
ITEM: TIMESTEP
108
ITEM: NUMBER OF ATOMS
8
ITEM: BOX BOUNDS pp pp pp
-100.000 100.000 
-100.000 100.000 
-100.000 100.000 
ITEM: ATOMS id mol type q xu yu zu
1 1 1 0.00 0.000000 0.000000 0.000000
2 1 1 0.00 0.052846 2.000298 0.000000
3 1 1 0.00 6.249749 7.999475 0.000000
4 1 1 0.00 4.421989 10.003738 0.000000
5 1 1 0.00 10.000000 0.000000 0.000000
6 1 1 0.00 9.946123 2.000466 0.000000
7 1 1 0.00 3.751607 7.999120 0.000000
8 1 1 0.00 5.577328 9.997159 0.000000
ITEM: TIMESTEP
110
ITEM: NUMBER OF ATOMS
8
ITEM: BOX BOUNDS pp pp pp
-100.000 100.000 
-100.000 100.000 
-100.000 100.000 
ITEM: ATOMS id mol type q xu yu zu
1 1 1 0.00 0.000000 0.000000 0.000000
2 1 1 0.00 0.078025 2.000070 0.000000
3 1 1 0.00 6.258460 7.999879 0.000000
4 1 1 0.00 4.417500 10.003605 0.000000
5 1 1 0.00 10.000000 0.000000 0.000000
6 1 1 0.00 9.920755 2.000758 0.000000
7 1 1 0.00 3.743107 7.998595 0.000000
8 1 1 0.00 5.581711 9.997372 0.000000
ITEM: TIMESTEP
112
ITEM: NUMBER OF ATOMS
8
ITEM: BOX BOUNDS pp pp pp
-100.000 100.000 
-100.000 100.000 
-100.000 100.000 
ITEM: ATOMS id mol type q xu yu zu
1 1 1 0.00 0.000000 0.000000 0.000000
2 1 1 0.00 0.106284 1.999836 0.000000
3 1 1 0.00 6.267680 8.000304 0.000000
4 1 1 0.00 4.411358 10.003481 0.000000
5 1 1 0.00 10.000000 0.000000 0.000000
6 1 1 0.00 9.892318 2.001058 0.000000
7 1 1 0.00 3.734084 7.998039 0.000000
8 1 1 0.00 5.587753 9.997583 0.000000
ITEM: TIMESTEP
114
ITEM: NUMBER OF ATOMS
8
ITEM: BOX BOUNDS pp pp pp
-100.000 100.000 
-100.000 100.000 
-100.000 100.000 
ITEM: ATOMS id mol type q xu yu zu
1 1 1 0.00 0.000000 0.000000 0.000000
2 1 1 0.00 0.138117 1.999604 0.000000
3 1 1 0.00 6.277852 8.000732 0.000000
4 1 1 0.00 4.403664 10.003337 0.000000
5 1 1 0.00 10.000000 0.000000 0.000000
6 1 1 0.00 9.860330 2.001359 0.000000
7 1 1 0.00 3.724071 7.997470 0.000000
8 1 1 0.00 5.595367 9.997822 0.000000
ITEM: TIMESTEP
116
ITEM: NUMBER OF ATOMS
8
ITEM: BOX BOUNDS pp pp pp
-100.000 100.000 
-100.000 100.000 
-100.000 100.000 
ITEM: ATOMS id mol type q xu yu zu
1 1 1 0.00 0.000000 0.000000 0.000000
2 1 1 0.00 0.172177 1.999377 0.000000
3 1 1 0.00 6.289086 8.001152 0.000000
4 1 1 0.00 4.398131 10.003183 0.000000
5 1 1 0.00 10.000000 0.000000 0.000000
6 1 1 0.00 9.826130 2.001659 0.000000
7 1 1 0.00 3.712974 7.996901 0.000000
8 1 1 0.00 5.600830 9.998075 0.000000
ITEM: TIMESTEP
118
ITEM: NUMBER OF ATOMS
8
ITEM: BOX BOUNDS pp pp pp
-100.000 100.000 
-100.000 100.000 
-100.000 100.000 
ITEM: ATOMS id mol type q xu yu zu
1 1 1 0.00 0.000000 0.000000 0.000000
2 1 1 0.00 0.208828 1.999154 0.000000
3 1 1 0.00 6.299685 8.001566 0.000000
4 1 1 0.00 4.389984 10.003042 0.000000
5 1 1 0.00 10.000000 0.000000 0.000000
6 1 1 0.00 9.789372 2.001954 0.000000
7 1 1 0.00 3.702468 7.996333 0.000000
8 1 1 0.00 5.608931 9.998321 0.000000
ITEM: TIMESTEP
120
ITEM: NUMBER OF ATOMS
8
ITEM: BOX BOUNDS pp pp pp
-100.000 100.000 
-100.000 100.000 
-100.000 100.000 
ITEM: ATOMS id mol type q xu yu zu
1 1 1 0.00 0.000000 0.000000 0.000000
2 1 1 0.00 0.248033 1.998940 0.000000
3 1 1 0.00 6.310519 8.001963 0.000000
4 1 1 0.00 4.382198 10.002915 0.000000
5 1 1 0.00 10.000000 0.000000 0.000000
6 1 1 0.00 9.750094 2.002243 0.000000
7 1 1 0.00 3.691681 7.995776 0.000000
8 1 1 0.00 5.616692 9.998557 0.000000
ITEM: TIMESTEP
122
ITEM: NUMBER OF ATOMS
8
ITEM: BOX BOUNDS pp pp pp
-100.000 100.000 
-100.000 100.000 
-100.000 100.000 
ITEM: ATOMS id mol type q xu yu zu
1 1 1 0.00 0.000000 0.000000 0.000000
2 1 1 0.00 0.289817 1.998737 0.000000
3 1 1 0.00 6.321832 8.002333 0.000000
4 1 1 0.00 4.375135 10.002784 0.000000
5 1 1 0.00 10.000000 0.000000 0.000000
6 1 1 0.00 9.708279 2.002522 0.000000
7 1 1 0.00 3.680354 7.995242 0.000000
8 1 1 0.00 5.623762 9.998800 0.000000
ITEM: TIMESTEP
124
ITEM: NUMBER OF ATOMS
8
ITEM: BOX BOUNDS pp pp pp
-100.000 100.000 
-100.000 100.000 
-100.000 100.000 
ITEM: ATOMS id mol type q xu yu zu
1 1 1 0.00 0.000000 0.000000 0.000000
2 1 1 0.00 0.334059 1.998548 0.000000
3 1 1 0.00 6.331881 8.002670 0.000000
4 1 1 0.00 4.365729 10.002659 0.000000
5 1 1 0.00 10.000000 0.000000 0.000000
6 1 1 0.00 9.664053 2.002788 0.000000
7 1 1 0.00 3.670226 7.994735 0.000000
8 1 1 0.00 5.633211 9.999040 0.000000
ITEM: TIMESTEP
126
ITEM: NUMBER OF ATOMS
8
ITEM: BOX BOUNDS pp pp pp
-100.000 100.000 
-100.000 100.000 
-100.000 100.000 
ITEM: ATOMS id mol type q xu yu zu
1 1 1 0.00 0.000000 0.000000 0.000000
2 1 1 0.00 0.381617 1.998373 0.000000
3 1 1 0.00 6.342224 8.002978 0.000000
4 1 1 0.00 4.356634 10.002551 0.000000
5 1 1 0.00 10.000000 0.000000 0.000000
6 1 1 0.00 9.616549 2.003039 0.000000
7 1 1 0.00 3.659747 7.994253 0.000000
8 1 1 0.00 5.642378 9.999267 0.000000
ITEM: TIMESTEP
128
ITEM: NUMBER OF ATOMS
8
ITEM: BOX BOUNDS pp pp pp
-100.000 100.000 
-100.000 100.000 
-100.000 100.000 
ITEM: ATOMS id mol type q xu yu zu
1 1 1 0.00 0.000000 0.000000 0.000000
2 1 1 0.00 0.431453 1.998213 0.000000
3 1 1 0.00 6.352767 8.003250 0.000000
4 1 1 0.00 4.349248 10.002460 0.000000
5 1 1 0.00 10.000000 0.000000 0.000000